ITEM: TIMESTEP
0
ITEM: NUMBER OF ATOMS
17488
ITEM: BOX BOUNDS pp pp pp
0.0000000000000000e+00 2.2769455110235236e+02
0.0000000000000000e+00 9.8594632778965590e+01
-2.8461818887794044e-01 2.8461818887794044e-01
ITEM: ATOMS id x y z c_4 
1 0 0 0 -3.26623
2 0.569236 0.985946 0 -3.26623
3 1.13847 0 0 -3.26623
4 1.70771 0.985946 0 -3.26623
5 2.27695 0 0 -3.26623
6 2.84618 0.985946 0 -3.26623
7 3.41542 0 0 -3.26623
8 3.98465 0.985946 0 -3.26623
11 5.69236 0 0 -3.26623
12 6.2616 0.985946 0 -3.26623
13 6.83084 0 0 -3.26623
14 7.40007 0.985946 0 -3.26623
15 7.96931 0 0 -3.26623
16 8.53855 0.985946 0 -3.26623
17 9.10778 0 0 -3.26623
18 9.67702 0.985946 0 -3.26623
19 10.2463 0 0 -3.26623
20 10.8155 0.985946 0 -3.26623
21 11.3847 0 0 -3.26623
22 11.954 0.985946 0 -3.26623
23 12.5232 0 0 -3.26623
24 13.0924 0.985946 0 -3.26623
25 13.6617 0 0 -3.26623
26 14.2309 0.985946 0 -3.26623
27 14.8001 0 0 -3.26623
28 15.3694 0.985946 0 -3.26623
29 15.9386 0 0 -3.26623
30 16.5079 0.985946 0 -3.26623
31 17.0771 0 0 -3.26623
32 17.6463 0.985946 0 -3.26623
33 18.2156 0 0 -3.26623
34 18.7848 0.985946 0 -3.26623
35 19.354 0 0 -3.26623
36 19.9233 0.985946 0 -3.26623
37 20.4925 0 0 -3.26623
38 21.0617 0.985946 0 -3.26623
39 21.631 0 0 -3.26623
40 22.2002 0.985946 0 -3.26623
41 22.7695 0 0 -3.26623
42 23.3387 0.985946 0 -3.26623
43 23.9079 0 0 -3.26623
44 24.4772 0.985946 0 -3.26623
45 25.0464 0 0 -3.26623
46 25.6156 0.985946 0 -3.26623
47 26.1849 0 0 -3.26623
48 26.7541 0.985946 0 -3.26623
49 27.3233 0 0 -3.26623
50 27.8926 0.985946 0 -3.26623
51 28.4618 0 0 -3.26623
52 29.0311 0.985946 0 -3.26623
53 29.6003 0 0 -3.26623
54 30.1695 0.985946 0 -3.26623
55 30.7388 0 0 -3.26623
56 31.308 0.985946 0 -3.26623
57 31.8772 0 0 -3.26623
58 32.4465 0.985946 0 -3.26623
59 33.0157 0 0 -3.26623
60 33.5849 0.985946 0 -3.26623
61 34.1542 0 0 -3.26623
62 34.7234 0.985946 0 -3.26623
63 35.2927 0 0 -3.26623
64 35.8619 0.985946 0 -3.26623
65 36.4311 0 0 -3.26623
66 37.0004 0.985946 0 -3.26623
67 37.5696 0 0 -3.26623
68 38.1388 0.985946 0 -3.26623
69 38.7081 0 0 -3.26623
70 39.2773 0.985946 0 -3.26623
71 39.8465 0 0 -3.26623
72 40.4158 0.985946 0 -3.26623
73 40.985 0 0 -3.26623
74 41.5543 0.985946 0 -3.26623
75 42.1235 0 0 -3.26623
76 42.6927 0.985946 0 -3.26623
77 43.262 0 0 -3.26623
78 43.8312 0.985946 0 -3.26623
79 44.4004 0 0 -3.26623
80 44.9697 0.985946 0 -3.26623
81 45.5389 0 0 -3.26623
82 46.1081 0.985946 0 -3.26623
83 46.6774 0 0 -3.26623
84 47.2466 0.985946 0 -3.26623
85 47.8159 0 0 -3.26623
86 48.3851 0.985946 0 -3.26623
87 48.9543 0 0 -3.26623
88 49.5236 0.985946 0 -3.26623
89 50.0928 0 0 -3.26623
90 50.662 0.985946 0 -3.26623
91 51.2313 0 0 -3.26623
92 51.8005 0.985946 0 -3.26623
93 52.3697 0 0 -3.26623
94 52.939 0.985946 0 -3.26623
95 53.5082 0 0 -3.26623
96 54.0775 0.985946 0 -3.26623
97 54.6467 0 0 -3.26623
98 55.2159 0.985946 0 -3.26623
99 55.7852 0 0 -3.26623
100 56.3544 0.985946 0 -3.26623
101 56.9236 0 0 -3.26623
104 58.6313 0.985946 0 -3.26623
105 59.2006 0 0 -3.26623
106 59.7698 0.985946 0 -3.26623
107 60.3391 0 0 -3.26623
108 60.9083 0.985946 0 -3.26623
109 61.4775 0 0 -3.26623
112 63.1852 0.985946 0 -3.26623
113 63.7545 0 0 -3.26623
114 64.3237 0.985946 0 -3.26623
115 64.8929 0 0 -3.26623
116 65.4622 0.985946 0 -3.26623
117 66.0314 0 0 -3.26623
118 66.6007 0.985946 0 -3.26623
119 67.1699 0 0 -3.26623
120 67.7391 0.985946 0 -3.26623
121 68.3084 0 0 -3.26623
122 68.8776 0.985946 0 -3.26623
123 69.4468 0 0 -3.26623
124 70.0161 0.985946 0 -3.26623
125 70.5853 0 0 -3.26623
126 71.1545 0.985946 0 -3.26623
127 71.7238 0 0 -3.26623
130 73.4315 0.985946 0 -3.26623
131 74.0007 0 0 -3.26623
132 74.57 0.985946 0 -3.26623
133 75.1392 0 0 -3.26623
134 75.7084 0.985946 0 -3.26623
135 76.2777 0 0 -3.26623
136 76.8469 0.985946 0 -3.26623
139 78.5546 0 0 -3.26623
140 79.1239 0.985946 0 -3.26623
141 79.6931 0 0 -3.26623
142 80.2623 0.985946 0 -3.26623
143 80.8316 0 0 -3.26623
144 81.4008 0.985946 0 -3.26623
145 81.97 0 0 -3.26623
146 82.5393 0.985946 0 -3.26623
147 83.1085 0 0 -3.26623
148 83.6777 0.985946 0 -3.26623
149 84.247 0 0 -3.26623
152 85.9547 0.985946 0 -3.26623
153 86.5239 0 0 -3.26623
154 87.0932 0.985946 0 -3.26623
155 87.6624 0 0 -3.26623
156 88.2316 0.985946 0 -3.26623
157 88.8009 0 0 -3.26623
158 89.3701 0.985946 0 -3.26623
159 89.9393 0 0 -3.26623
160 90.5086 0.985946 0 -3.26623
161 91.0778 0 0 -3.26623
162 91.6471 0.985946 0 -3.26623
165 93.3548 0 0 -3.26623
166 93.924 0.985946 0 -3.26623
167 94.4932 0 0 -3.26623
168 95.0625 0.985946 0 -3.26623
169 95.6317 0 0 -3.26623
170 96.2009 0.985946 0 -3.26623
171 96.7702 0 0 -3.26623
172 97.3394 0.985946 0 -3.26623
173 97.9087 0 0 -3.26623
174 98.4779 0.985946 0 -3.26623
175 99.0471 0 0 -3.26623
176 99.6164 0.985946 0 -3.26623
177 100.186 0 0 -3.26623
178 100.755 0.985946 0 -3.26623
179 101.324 0 0 -3.26623
180 101.893 0.985946 0 -3.26623
181 102.463 0 0 -3.26623
182 103.032 0.985946 0 -3.26623
183 103.601 0 0 -3.26623
184 104.17 0.985946 0 -3.26623
185 104.739 0 0 -3.26623
186 105.309 0.985946 0 -3.26623
187 105.878 0 0 -3.26623
188 106.447 0.985946 0 -3.26623
189 107.016 0 0 -3.26623
190 107.586 0.985946 0 -3.26623
191 108.155 0 0 -3.26623
192 108.724 0.985946 0 -3.26623
193 109.293 0 0 -3.26623
194 109.863 0.985946 0 -3.26623
195 110.432 0 0 -3.26623
196 111.001 0.985946 0 -3.26623
197 111.57 0 0 -3.26623
198 112.14 0.985946 0 -3.26623
199 112.709 0 0 -3.26623
200 113.278 0.985946 0 -3.26623
201 113.847 0 0 -3.26623
202 114.417 0.985946 0 -3.26623
203 114.986 0 0 -3.26623
204 115.555 0.985946 0 -3.26623
205 116.124 0 0 -3.26623
206 116.693 0.985946 0 -3.26623
207 117.263 0 0 -3.26623
208 117.832 0.985946 0 -3.26623
209 118.401 0 0 -3.26623
210 118.97 0.985946 0 -3.26623
213 120.678 0 0 -3.26623
214 121.247 0.985946 0 -3.26623
215 121.817 0 0 -3.26623
218 123.524 0.985946 0 -3.26623
219 124.094 0 0 -3.26623
220 124.663 0.985946 0 -3.26623
221 125.232 0 0 -3.26623
222 125.801 0.985946 0 -3.26623
223 126.37 0 0 -3.26623
224 126.94 0.985946 0 -3.26623
225 127.509 0 0 -3.26623
226 128.078 0.985946 0 -3.26623
227 128.647 0 0 -3.26623
228 129.217 0.985946 0 -3.26623
229 129.786 0 0 -3.26623
230 130.355 0.985946 0 -3.26623
231 130.924 0 0 -3.26623
234 132.632 0.985946 0 -3.26623
235 133.201 0 0 -3.26623
236 133.771 0.985946 0 -3.26623
237 134.34 0 0 -3.26623
238 134.909 0.985946 0 -3.26623
239 135.478 0 0 -3.26623
240 136.047 0.985946 0 -3.26623
243 137.755 0 0 -3.26623
244 138.324 0.985946 0 -3.26623
245 138.894 0 0 -3.26623
246 139.463 0.985946 0 -3.26623
247 140.032 0 0 -3.26623
248 140.601 0.985946 0 -3.26623
249 141.171 0 0 -3.26623
250 141.74 0.985946 0 -3.26623
251 142.309 0 0 -3.26623
252 142.878 0.985946 0 -3.26623
253 143.448 0 0 -3.26623
254 144.017 0.985946 0 -3.26623
255 144.586 0 0 -3.26623
256 145.155 0.985946 0 -3.26623
257 145.725 0 0 -3.26623
258 146.294 0.985946 0 -3.26623
259 146.863 0 0 -3.26623
260 147.432 0.985946 0 -3.26623
261 148.001 0 0 -3.26623
262 148.571 0.985946 0 -3.26623
263 149.14 0 0 -3.26623
264 149.709 0.985946 0 -3.26623
265 150.278 0 0 -3.26623
266 150.848 0.985946 0 -3.26623
267 151.417 0 0 -3.26623
268 151.986 0.985946 0 -3.26623
269 152.555 0 0 -3.26623
270 153.125 0.985946 0 -3.26623
271 153.694 0 0 -3.26623
272 154.263 0.985946 0 -3.26623
273 154.832 0 0 -3.26623
274 155.402 0.985946 0 -3.26623
275 155.971 0 0 -3.26623
276 156.54 0.985946 0 -3.26623
277 157.109 0 0 -3.26623
278 157.678 0.985946 0 -3.26623
279 158.248 0 0 -3.26623
280 158.817 0.985946 0 -3.26623
281 159.386 0 0 -3.26623
282 159.955 0.985946 0 -3.26623
283 160.525 0 0 -3.26623
284 161.094 0.985946 0 -3.26623
285 161.663 0 0 -3.26623
286 162.232 0.985946 0 -3.26623
287 162.802 0 0 -3.26623
288 163.371 0.985946 0 -3.26623
289 163.94 0 0 -3.26623
290 164.509 0.985946 0 -3.26623
291 165.079 0 0 -3.26623
292 165.648 0.985946 0 -3.26623
293 166.217 0 0 -3.26623
294 166.786 0.985946 0 -3.26623
295 167.355 0 0 -3.26623
296 167.925 0.985946 0 -3.26623
297 168.494 0 0 -3.26623
298 169.063 0.985946 0 -3.26623
299 169.632 0 0 -3.26623
300 170.202 0.985946 0 -3.26623
301 170.771 0 0 -3.26623
302 171.34 0.985946 0 -3.26623
303 171.909 0 0 -3.26623
304 172.479 0.985946 0 -3.26623
305 173.048 0 0 -3.26623
306 173.617 0.985946 0 -3.26623
307 174.186 0 0 -3.26623
308 174.756 0.985946 0 -3.26623
309 175.325 0 0 -3.26623
310 175.894 0.985946 0 -3.26623
311 176.463 0 0 -3.26623
312 177.033 0.985946 0 -3.26623
313 177.602 0 0 -3.26623
314 178.171 0.985946 0 -3.26623
315 178.74 0 0 -3.26623
316 179.309 0.985946 0 -3.26623
317 179.879 0 0 -3.26623
318 180.448 0.985946 0 -3.26623
319 181.017 0 0 -3.26623
320 181.586 0.985946 0 -3.26623
321 182.156 0 0 -3.26623
322 182.725 0.985946 0 -3.26623
323 183.294 0 0 -3.26623
324 183.863 0.985946 0 -3.26623
325 184.433 0 0 -3.26623
326 185.002 0.985946 0 -3.26623
327 185.571 0 0 -3.26623
328 186.14 0.985946 0 -3.26623
329 186.71 0 0 -3.26623
330 187.279 0.985946 0 -3.26623
331 187.848 0 0 -3.26623
332 188.417 0.985946 0 -3.26623
333 188.986 0 0 -3.26623
334 189.556 0.985946 0 -3.26623
335 190.125 0 0 -3.26623
336 190.694 0.985946 0 -3.26623
337 191.263 0 0 -3.26623
338 191.833 0.985946 0 -3.26623
339 192.402 0 0 -3.26623
340 192.971 0.985946 0 -3.26623
341 193.54 0 0 -3.26623
342 194.11 0.985946 0 -3.26623
343 194.679 0 0 -3.26623
344 195.248 0.985946 0 -3.26623
345 195.817 0 0 -3.26623
346 196.387 0.985946 0 -3.26623
347 196.956 0 0 -3.26623
348 197.525 0.985946 0 -3.26623
349 198.094 0 0 -3.26623
350 198.663 0.985946 0 -3.26623
351 199.233 0 0 -3.26623
352 199.802 0.985946 0 -3.26623
353 200.371 0 0 -3.26623
354 200.94 0.985946 0 -3.26623
355 201.51 0 0 -3.26623
356 202.079 0.985946 0 -3.26623
357 202.648 0 0 -3.26623
358 203.217 0.985946 0 -3.26623
359 203.787 0 0 -3.26623
360 204.356 0.985946 0 -3.26623
361 204.925 0 0 -3.26623
362 205.494 0.985946 0 -3.26623
363 206.064 0 0 -3.26623
364 206.633 0.985946 0 -3.26623
365 207.202 0 0 -3.26623
366 207.771 0.985946 0 -3.26623
367 208.341 0 0 -3.26623
368 208.91 0.985946 0 -3.26623
369 209.479 0 0 -3.26623
370 210.048 0.985946 0 -3.26623
371 210.617 0 0 -3.26623
372 211.187 0.985946 0 -3.26623
373 211.756 0 0 -3.26623
374 212.325 0.985946 0 -3.26623
375 212.894 0 0 -3.26623
376 213.464 0.985946 0 -3.26623
377 214.033 0 0 -3.26623
378 214.602 0.985946 0 -3.26623
379 215.171 0 0 -3.26623
380 215.741 0.985946 0 -3.26623
381 216.31 0 0 -3.26623
382 216.879 0.985946 0 -3.26623
383 217.448 0 0 -3.26623
384 218.018 0.985946 0 -3.26623
385 218.587 0 0 -3.26623
386 219.156 0.985946 0 -3.26623
387 219.725 0 0 -3.26623
388 220.294 0.985946 0 -3.26623
389 220.864 0 0 -3.26623
390 221.433 0.985946 0 -3.26623
391 222.002 0 0 -3.26623
392 222.571 0.985946 0 -3.26623
393 223.141 0 0 -3.26623
394 223.71 0.985946 0 -3.26623
395 224.279 0 0 -3.26623
396 224.848 0.985946 0 -3.26623
397 225.418 0 0 -3.26623
398 225.987 0.985946 0 -3.26623
399 226.556 0 0 -3.26623
400 227.125 0.985946 0 -3.26623
401 0 1.97189 0 -3.26623
402 0.569236 2.95784 0 -3.26623
403 1.13847 1.97189 0 -3.26623
404 1.70771 2.95784 0 -3.26623
405 2.27695 1.97189 0 -3.26623
406 2.84618 2.95784 0 -3.26623
407 3.41542 1.97189 0 -3.26623
408 3.98465 2.95784 0 -3.26623
409 4.55389 1.97189 0 -3.26623
410 5.12313 2.95784 0 -3.26623
413 6.83084 1.97189 0 -3.26623
414 7.40007 2.95784 0 -3.26623
415 7.96931 1.97189 0 -3.26623
416 8.53855 2.95784 0 -3.26623
417 9.10778 1.97189 0 -3.26623
418 9.67702 2.95784 0 -3.26623
419 10.2463 1.97189 0 -3.26623
420 10.8155 2.95784 0 -3.26623
421 11.3847 1.97189 0 -3.26623
422 11.954 2.95784 0 -3.26623
423 12.5232 1.97189 0 -3.26623
424 13.0924 2.95784 0 -3.26623
425 13.6617 1.97189 0 -3.26623
426 14.2309 2.95784 0 -3.26623
427 14.8001 1.97189 0 -3.26623
428 15.3694 2.95784 0 -3.26623
429 15.9386 1.97189 0 -3.26623
430 16.5079 2.95784 0 -3.26623
431 17.0771 1.97189 0 -3.26623
432 17.6463 2.95784 0 -3.26623
433 18.2156 1.97189 0 -3.26623
434 18.7848 2.95784 0 -3.26623
435 19.354 1.97189 0 -3.26623
436 19.9233 2.95784 0 -3.26623
437 20.4925 1.97189 0 -3.26623
438 21.0617 2.95784 0 -3.26623
439 21.631 1.97189 0 -3.26623
440 22.2002 2.95784 0 -3.26623
441 22.7695 1.97189 0 -3.26623
442 23.3387 2.95784 0 -3.26623
443 23.9079 1.97189 0 -3.26623
444 24.4772 2.95784 0 -3.26623
445 25.0464 1.97189 0 -3.26623
446 25.6156 2.95784 0 -3.26623
447 26.1849 1.97189 0 -3.26623
448 26.7541 2.95784 0 -3.26623
449 27.3233 1.97189 0 -3.26623
450 27.8926 2.95784 0 -3.26623
451 28.4618 1.97189 0 -3.26623
452 29.0311 2.95784 0 -3.26623
453 29.6003 1.97189 0 -3.26623
454 30.1695 2.95784 0 -3.26623
455 30.7388 1.97189 0 -3.26623
456 31.308 2.95784 0 -3.26623
457 31.8772 1.97189 0 -3.26623
458 32.4465 2.95784 0 -3.26623
459 33.0157 1.97189 0 -3.26623
460 33.5849 2.95784 0 -3.26623
461 34.1542 1.97189 0 -3.26623
462 34.7234 2.95784 0 -3.26623
463 35.2927 1.97189 0 -3.26623
464 35.8619 2.95784 0 -3.26623
465 36.4311 1.97189 0 -3.26623
466 37.0004 2.95784 0 -3.26623
467 37.5696 1.97189 0 -3.26623
468 38.1388 2.95784 0 -3.26623
469 38.7081 1.97189 0 -3.26623
470 39.2773 2.95784 0 -3.26623
471 39.8465 1.97189 0 -3.26623
472 40.4158 2.95784 0 -3.26623
473 40.985 1.97189 0 -3.26623
474 41.5543 2.95784 0 -3.26623
475 42.1235 1.97189 0 -3.26623
476 42.6927 2.95784 0 -3.26623
477 43.262 1.97189 0 -3.26623
478 43.8312 2.95784 0 -3.26623
479 44.4004 1.97189 0 -3.26623
480 44.9697 2.95784 0 -3.26623
481 45.5389 1.97189 0 -3.26623
482 46.1081 2.95784 0 -3.26623
483 46.6774 1.97189 0 -3.26623
484 47.2466 2.95784 0 -3.26623
485 47.8159 1.97189 0 -3.26623
486 48.3851 2.95784 0 -3.26623
487 48.9543 1.97189 0 -3.26623
488 49.5236 2.95784 0 -3.26623
489 50.0928 1.97189 0 -3.26623
490 50.662 2.95784 0 -3.26623
491 51.2313 1.97189 0 -3.26623
492 51.8005 2.95784 0 -3.26623
493 52.3697 1.97189 0 -3.26623
494 52.939 2.95784 0 -3.26623
495 53.5082 1.97189 0 -3.26623
496 54.0775 2.95784 0 -3.26623
497 54.6467 1.97189 0 -3.26623
498 55.2159 2.95784 0 -3.26623
499 55.7852 1.97189 0 -3.26623
502 57.4929 2.95784 0 -3.26623
503 58.0621 1.97189 0 -3.26623
504 58.6313 2.95784 0 -3.26623
505 59.2006 1.97189 0 -3.26623
506 59.7698 2.95784 0 -3.26623
507 60.3391 1.97189 0 -3.26623
510 62.0468 2.95784 0 -3.26623
511 62.616 1.97189 0 -3.26623
512 63.1852 2.95784 0 -3.26623
513 63.7545 1.97189 0 -3.26623
514 64.3237 2.95784 0 -3.26623
515 64.8929 1.97189 0 -3.26623
516 65.4622 2.95784 0 -3.26623
517 66.0314 1.97189 0 -3.26623
518 66.6007 2.95784 0 -3.26623
519 67.1699 1.97189 0 -3.26623
520 67.7391 2.95784 0 -3.26623
521 68.3084 1.97189 0 -3.26623
522 68.8776 2.95784 0 -3.26623
523 69.4468 1.97189 0 -3.26623
524 70.0161 2.95784 0 -3.26623
525 70.5853 1.97189 0 -3.26623
528 72.293 2.95784 0 -3.26623
529 72.8623 1.97189 0 -3.26623
530 73.4315 2.95784 0 -3.26623
531 74.0007 1.97189 0 -3.26623
532 74.57 2.95784 0 -3.26623
533 75.1392 1.97189 0 -3.26623
534 75.7084 2.95784 0 -3.26623
535 76.2777 1.97189 0 -3.26623
536 76.8469 2.95784 0 -3.26623
537 77.4161 1.97189 0 -3.26623
538 77.9854 2.95784 0 -3.26623
541 79.6931 1.97189 0 -3.26623
542 80.2623 2.95784 0 -3.26623
543 80.8316 1.97189 0 -3.26623
544 81.4008 2.95784 0 -3.26623
545 81.97 1.97189 0 -3.26623
546 82.5393 2.95784 0 -3.26623
547 83.1085 1.97189 0 -3.26623
550 84.8162 2.95784 0 -3.26623
551 85.3855 1.97189 0 -3.26623
552 85.9547 2.95784 0 -3.26623
553 86.5239 1.97189 0 -3.26623
554 87.0932 2.95784 0 -3.26623
555 87.6624 1.97189 0 -3.26623
556 88.2316 2.95784 0 -3.26623
557 88.8009 1.97189 0 -3.26623
558 89.3701 2.95784 0 -3.26623
559 89.9393 1.97189 0 -3.26623
560 90.5086 2.95784 0 -3.26623
561 91.0778 1.97189 0 -3.26623
562 91.6471 2.95784 0 -3.26623
563 92.2163 1.97189 0 -3.26623
564 92.7855 2.95784 0 -3.26623
567 94.4932 1.97189 0 -3.26623
568 95.0625 2.95784 0 -3.26623
569 95.6317 1.97189 0 -3.26623
570 96.2009 2.95784 0 -3.26623
571 96.7702 1.97189 0 -3.26623
572 97.3394 2.95784 0 -3.26623
573 97.9087 1.97189 0 -3.26623
574 98.4779 2.95784 0 -3.26623
575 99.0471 1.97189 0 -3.26623
577 100.186 1.97189 0 -3.26623
578 100.755 2.95784 0 -3.26623
579 101.324 1.97189 0 -3.26623
580 101.893 2.95784 0 -3.26623
581 102.463 1.97189 0 -3.26623
582 103.032 2.95784 0 -3.26623
583 103.601 1.97189 0 -3.26623
584 104.17 2.95784 0 -3.26623
585 104.739 1.97189 0 -3.26623
586 105.309 2.95784 0 -3.26623
587 105.878 1.97189 0 -3.26623
588 106.447 2.95784 0 -3.26623
589 107.016 1.97189 0 -3.26623
590 107.586 2.95784 0 -3.26623
591 108.155 1.97189 0 -3.26623
592 108.724 2.95784 0 -3.26623
593 109.293 1.97189 0 -3.26623
594 109.863 2.95784 0 -3.26623
595 110.432 1.97189 0 -3.26623
596 111.001 2.95784 0 -3.26623
597 111.57 1.97189 0 -3.26623
598 112.14 2.95784 0 -3.26623
599 112.709 1.97189 0 -3.26623
600 113.278 2.95784 0 -3.26623
601 113.847 1.97189 0 -3.26623
602 114.417 2.95784 0 -3.26623
603 114.986 1.97189 0 -3.26623
604 115.555 2.95784 0 -3.26623
605 116.124 1.97189 0 -3.26623
606 116.693 2.95784 0 -3.26623
607 117.263 1.97189 0 -3.26623
608 117.832 2.95784 0 -3.26623
609 118.401 1.97189 0 -3.26623
610 118.97 2.95784 0 -3.26623
611 119.54 1.97189 0 -3.26623
612 120.109 2.95784 0 -3.26623
616 122.386 2.95784 0 -3.26623
617 122.955 1.97189 0 -3.26623
618 123.524 2.95784 0 -3.26623
619 124.094 1.97189 0 -3.26623
620 124.663 2.95784 0 -3.26623
621 125.232 1.97189 0 -3.26623
622 125.801 2.95784 0 -3.26623
623 126.37 1.97189 0 -3.26623
624 126.94 2.95784 0 -3.26623
625 127.509 1.97189 0 -3.26623
626 128.078 2.95784 0 -3.26623
627 128.647 1.97189 0 -3.26623
628 129.217 2.95784 0 -3.26623
629 129.786 1.97189 0 -3.26623
632 131.494 2.95784 0 -3.26623
633 132.063 1.97189 0 -3.26623
634 132.632 2.95784 0 -3.26623
635 133.201 1.97189 0 -3.26623
636 133.771 2.95784 0 -3.26623
637 134.34 1.97189 0 -3.26623
638 134.909 2.95784 0 -3.26623
639 135.478 1.97189 0 -3.26623
640 136.047 2.95784 0 -3.26623
641 136.617 1.97189 0 -3.26623
642 137.186 2.95784 0 -3.26623
645 138.894 1.97189 0 -3.26623
646 139.463 2.95784 0 -3.26623
647 140.032 1.97189 0 -3.26623
648 140.601 2.95784 0 -3.26623
649 141.171 1.97189 0 -3.26623
650 141.74 2.95784 0 -3.26623
651 142.309 1.97189 0 -3.26623
652 142.878 2.95784 0 -3.26623
653 143.448 1.97189 0 -3.26623
654 144.017 2.95784 0 -3.26623
655 144.586 1.97189 0 -3.26623
656 145.155 2.95784 0 -3.26623
657 145.725 1.97189 0 -3.26623
658 146.294 2.95784 0 -3.26623
659 146.863 1.97189 0 -3.26623
660 147.432 2.95784 0 -3.26623
661 148.001 1.97189 0 -3.26623
662 148.571 2.95784 0 -3.26623
663 149.14 1.97189 0 -3.26623
664 149.709 2.95784 0 -3.26623
665 150.278 1.97189 0 -3.26623
666 150.848 2.95784 0 -3.26623
667 151.417 1.97189 0 -3.26623
668 151.986 2.95784 0 -3.26623
669 152.555 1.97189 0 -3.26623
670 153.125 2.95784 0 -3.26623
671 153.694 1.97189 0 -3.26623
672 154.263 2.95784 0 -3.26623
673 154.832 1.97189 0 -3.26623
674 155.402 2.95784 0 -3.26623
675 155.971 1.97189 0 -3.26623
676 156.54 2.95784 0 -3.26623
677 157.109 1.97189 0 -3.26623
678 157.678 2.95784 0 -3.26623
679 158.248 1.97189 0 -3.26623
680 158.817 2.95784 0 -3.26623
681 159.386 1.97189 0 -3.26623
682 159.955 2.95784 0 -3.26623
683 160.525 1.97189 0 -3.26623
684 161.094 2.95784 0 -3.26623
685 161.663 1.97189 0 -3.26623
686 162.232 2.95784 0 -3.26623
687 162.802 1.97189 0 -3.26623
688 163.371 2.95784 0 -3.26623
689 163.94 1.97189 0 -3.26623
690 164.509 2.95784 0 -3.26623
691 165.079 1.97189 0 -3.26623
692 165.648 2.95784 0 -3.26623
693 166.217 1.97189 0 -3.26623
694 166.786 2.95784 0 -3.26623
695 167.355 1.97189 0 -3.26623
696 167.925 2.95784 0 -3.26623
697 168.494 1.97189 0 -3.26623
698 169.063 2.95784 0 -3.26623
699 169.632 1.97189 0 -3.26623
700 170.202 2.95784 0 -3.26623
701 170.771 1.97189 0 -3.26623
702 171.34 2.95784 0 -3.26623
703 171.909 1.97189 0 -3.26623
704 172.479 2.95784 0 -3.26623
705 173.048 1.97189 0 -3.26623
706 173.617 2.95784 0 -3.26623
707 174.186 1.97189 0 -3.26623
708 174.756 2.95784 0 -3.26623
709 175.325 1.97189 0 -3.26623
710 175.894 2.95784 0 -3.26623
711 176.463 1.97189 0 -3.26623
712 177.033 2.95784 0 -3.26623
713 177.602 1.97189 0 -3.26623
714 178.171 2.95784 0 -3.26623
715 178.74 1.97189 0 -3.26623
716 179.309 2.95784 0 -3.26623
717 179.879 1.97189 0 -3.26623
718 180.448 2.95784 0 -3.26623
719 181.017 1.97189 0 -3.26623
720 181.586 2.95784 0 -3.26623
721 182.156 1.97189 0 -3.26623
722 182.725 2.95784 0 -3.26623
723 183.294 1.97189 0 -3.26623
724 183.863 2.95784 0 -3.26623
725 184.433 1.97189 0 -3.26623
726 185.002 2.95784 0 -3.26623
727 185.571 1.97189 0 -3.26623
728 186.14 2.95784 0 -3.26623
729 186.71 1.97189 0 -3.26623
730 187.279 2.95784 0 -3.26623
731 187.848 1.97189 0 -3.26623
732 188.417 2.95784 0 -3.26623
733 188.986 1.97189 0 -3.26623
734 189.556 2.95784 0 -3.26623
735 190.125 1.97189 0 -3.26623
736 190.694 2.95784 0 -3.26623
737 191.263 1.97189 0 -3.26623
738 191.833 2.95784 0 -3.26623
739 192.402 1.97189 0 -3.26623
740 192.971 2.95784 0 -3.26623
741 193.54 1.97189 0 -3.26623
742 194.11 2.95784 0 -3.26623
743 194.679 1.97189 0 -3.26623
744 195.248 2.95784 0 -3.26623
745 195.817 1.97189 0 -3.26623
746 196.387 2.95784 0 -3.26623
747 196.956 1.97189 0 -3.26623
748 197.525 2.95784 0 -3.26623
749 198.094 1.97189 0 -3.26623
750 198.663 2.95784 0 -3.26623
751 199.233 1.97189 0 -3.26623
752 199.802 2.95784 0 -3.26623
753 200.371 1.97189 0 -3.26623
754 200.94 2.95784 0 -3.26623
755 201.51 1.97189 0 -3.26623
756 202.079 2.95784 0 -3.26623
757 202.648 1.97189 0 -3.26623
758 203.217 2.95784 0 -3.26623
759 203.787 1.97189 0 -3.26623
760 204.356 2.95784 0 -3.26623
761 204.925 1.97189 0 -3.26623
762 205.494 2.95784 0 -3.26623
763 206.064 1.97189 0 -3.26623
764 206.633 2.95784 0 -3.26623
765 207.202 1.97189 0 -3.26623
766 207.771 2.95784 0 -3.26623
767 208.341 1.97189 0 -3.26623
768 208.91 2.95784 0 -3.26623
769 209.479 1.97189 0 -3.26623
770 210.048 2.95784 0 -3.26623
771 210.617 1.97189 0 -3.26623
772 211.187 2.95784 0 -3.26623
773 211.756 1.97189 0 -3.26623
774 212.325 2.95784 0 -3.26623
775 212.894 1.97189 0 -3.26623
776 213.464 2.95784 0 -3.26623
777 214.033 1.97189 0 -3.26623
778 214.602 2.95784 0 -3.26623
779 215.171 1.97189 0 -3.26623
780 215.741 2.95784 0 -3.26623
781 216.31 1.97189 0 -3.26623
782 216.879 2.95784 0 -3.26623
783 217.448 1.97189 0 -3.26623
784 218.018 2.95784 0 -3.26623
785 218.587 1.97189 0 -3.26623
786 219.156 2.95784 0 -3.26623
787 219.725 1.97189 0 -3.26623
788 220.294 2.95784 0 -3.26623
789 220.864 1.97189 0 -3.26623
790 221.433 2.95784 0 -3.26623
791 222.002 1.97189 0 -3.26623
792 222.571 2.95784 0 -3.26623
793 223.141 1.97189 0 -3.26623
794 223.71 2.95784 0 -3.26623
795 224.279 1.97189 0 -3.26623
796 224.848 2.95784 0 -3.26623
797 225.418 1.97189 0 -3.26623
798 225.987 2.95784 0 -3.26623
799 226.556 1.97189 0 -3.26623
800 227.125 2.95784 0 -3.26623
801 0 3.94379 0 -3.26623
802 0.569236 4.92973 0 -3.26623
803 1.13847 3.94379 0 -3.26623
804 1.70771 4.92973 0 -3.26623
805 2.27695 3.94379 0 -3.26623
806 2.84618 4.92973 0 -3.26623
807 3.41542 3.94379 0 -3.26623
808 3.98465 4.92973 0 -3.26623
809 4.55389 3.94379 0 -3.26623
810 5.12313 4.92973 0 -3.26623
811 5.69236 3.94379 0 -3.26623
812 6.2616 4.92973 0 -3.26623
815 7.96931 3.94379 0 -3.26623
816 8.53855 4.92973 0 -3.26623
817 9.10778 3.94379 0 -3.26623
818 9.67702 4.92973 0 -3.26623
819 10.2463 3.94379 0 -3.26623
820 10.8155 4.92973 0 -3.26623
821 11.3847 3.94379 0 -3.26623
822 11.954 4.92973 0 -3.26623
823 12.5232 3.94379 0 -3.26623
824 13.0924 4.92973 0 -3.26623
825 13.6617 3.94379 0 -3.26623
826 14.2309 4.92973 0 -3.26623
827 14.8001 3.94379 0 -3.26623
828 15.3694 4.92973 0 -3.26623
829 15.9386 3.94379 0 -3.26623
830 16.5079 4.92973 0 -3.26623
831 17.0771 3.94379 0 -3.26623
832 17.6463 4.92973 0 -3.26623
833 18.2156 3.94379 0 -3.26623
834 18.7848 4.92973 0 -3.26623
835 19.354 3.94379 0 -3.26623
836 19.9233 4.92973 0 -3.26623
837 20.4925 3.94379 0 -3.26623
838 21.0617 4.92973 0 -3.26623
839 21.631 3.94379 0 -3.26623
840 22.2002 4.92973 0 -3.26623
841 22.7695 3.94379 0 -3.26623
842 23.3387 4.92973 0 -3.26623
843 23.9079 3.94379 0 -3.26623
844 24.4772 4.92973 0 -3.26623
845 25.0464 3.94379 0 -3.26623
846 25.6156 4.92973 0 -3.26623
847 26.1849 3.94379 0 -3.26623
848 26.7541 4.92973 0 -3.26623
849 27.3233 3.94379 0 -3.26623
850 27.8926 4.92973 0 -3.26623
851 28.4618 3.94379 0 -3.26623
852 29.0311 4.92973 0 -3.26623
853 29.6003 3.94379 0 -3.26623
854 30.1695 4.92973 0 -3.26623
855 30.7388 3.94379 0 -3.26623
856 31.308 4.92973 0 -3.26623
857 31.8772 3.94379 0 -3.26623
858 32.4465 4.92973 0 -3.26623
859 33.0157 3.94379 0 -3.26623
860 33.5849 4.92973 0 -3.26623
861 34.1542 3.94379 0 -3.26623
862 34.7234 4.92973 0 -3.26623
863 35.2927 3.94379 0 -3.26623
864 35.8619 4.92973 0 -3.26623
865 36.4311 3.94379 0 -3.26623
866 37.0004 4.92973 0 -3.26623
867 37.5696 3.94379 0 -3.26623
868 38.1388 4.92973 0 -3.26623
869 38.7081 3.94379 0 -3.26623
870 39.2773 4.92973 0 -3.26623
871 39.8465 3.94379 0 -3.26623
872 40.4158 4.92973 0 -3.26623
873 40.985 3.94379 0 -3.26623
874 41.5543 4.92973 0 -3.26623
875 42.1235 3.94379 0 -3.26623
876 42.6927 4.92973 0 -3.26623
877 43.262 3.94379 0 -3.26623
878 43.8312 4.92973 0 -3.26623
879 44.4004 3.94379 0 -3.26623
880 44.9697 4.92973 0 -3.26623
881 45.5389 3.94379 0 -3.26623
882 46.1081 4.92973 0 -3.26623
883 46.6774 3.94379 0 -3.26623
884 47.2466 4.92973 0 -3.26623
885 47.8159 3.94379 0 -3.26623
886 48.3851 4.92973 0 -3.26623
887 48.9543 3.94379 0 -3.26623
888 49.5236 4.92973 0 -3.26623
889 50.0928 3.94379 0 -3.26623
890 50.662 4.92973 0 -3.26623
891 51.2313 3.94379 0 -3.26623
892 51.8005 4.92973 0 -3.26623
893 52.3697 3.94379 0 -3.26623
894 52.939 4.92973 0 -3.26623
895 53.5082 3.94379 0 -3.26623
896 54.0775 4.92973 0 -3.26623
897 54.6467 3.94379 0 -3.26623
900 56.3544 4.92973 0 -3.26623
901 56.9236 3.94379 0 -3.26623
902 57.4929 4.92973 0 -3.26623
903 58.0621 3.94379 0 -3.26623
904 58.6313 4.92973 0 -3.26623
905 59.2006 3.94379 0 -3.26623
908 60.9083 4.92973 0 -3.26623
909 61.4775 3.94379 0 -3.26623
910 62.0468 4.92973 0 -3.26623
911 62.616 3.94379 0 -3.26623
912 63.1852 4.92973 0 -3.26623
913 63.7545 3.94379 0 -3.26623
914 64.3237 4.92973 0 -3.26623
915 64.8929 3.94379 0 -3.26623
916 65.4622 4.92973 0 -3.26623
917 66.0314 3.94379 0 -3.26623
918 66.6007 4.92973 0 -3.26623
919 67.1699 3.94379 0 -3.26623
920 67.7391 4.92973 0 -3.26623
921 68.3084 3.94379 0 -3.26623
922 68.8776 4.92973 0 -3.26623
923 69.4468 3.94379 0 -3.26623
926 71.1545 4.92973 0 -3.26623
927 71.7238 3.94379 0 -3.26623
928 72.293 4.92973 0 -3.26623
929 72.8623 3.94379 0 -3.26623
930 73.4315 4.92973 0 -3.26623
931 74.0007 3.94379 0 -3.26623
932 74.57 4.92973 0 -3.26623
933 75.1392 3.94379 0 -3.26623
934 75.7084 4.92973 0 -3.26623
935 76.2777 3.94379 0 -3.26623
936 76.8469 4.92973 0 -3.26623
937 77.4161 3.94379 0 -3.26623
938 77.9854 4.92973 0 -3.26623
939 78.5546 3.94379 0 -3.26623
940 79.1239 4.92973 0 -3.26623
943 80.8316 3.94379 0 -3.26623
944 81.4008 4.92973 0 -3.26623
945 81.97 3.94379 0 -3.26623
948 83.6777 4.92973 0 -3.26623
949 84.247 3.94379 0 -3.26623
950 84.8162 4.92973 0 -3.26623
951 85.3855 3.94379 0 -3.26623
952 85.9547 4.92973 0 -3.26623
953 86.5239 3.94379 0 -3.26623
954 87.0932 4.92973 0 -3.26623
955 87.6624 3.94379 0 -3.26623
956 88.2316 4.92973 0 -3.26623
957 88.8009 3.94379 0 -3.26623
958 89.3701 4.92973 0 -3.26623
959 89.9393 3.94379 0 -3.26623
960 90.5086 4.92973 0 -3.26623
961 91.0778 3.94379 0 -3.26623
962 91.6471 4.92973 0 -3.26623
963 92.2163 3.94379 0 -3.26623
964 92.7855 4.92973 0 -3.26623
965 93.3548 3.94379 0 -3.26623
966 93.924 4.92973 0 -3.26623
969 95.6317 3.94379 0 -3.26623
970 96.2009 4.92973 0 -3.26623
971 96.7702 3.94379 0 -3.26623
972 97.3394 4.92973 0 -3.26623
973 97.9087 3.94379 0 -3.26623
974 98.4779 4.92973 0 -3.26623
975 99.0471 3.94379 0 -3.26623
976 99.6164 4.92973 0 -3.26623
979 101.324 3.94379 0 -3.26623
980 101.893 4.92973 0 -3.26623
981 102.463 3.94379 0 -3.26623
982 103.032 4.92973 0 -3.26623
983 103.601 3.94379 0 -3.26623
984 104.17 4.92973 0 -3.26623
985 104.739 3.94379 0 -3.26623
986 105.309 4.92973 0 -3.26623
987 105.878 3.94379 0 -3.26623
988 106.447 4.92973 0 -3.26623
989 107.016 3.94379 0 -3.26623
990 107.586 4.92973 0 -3.26623
991 108.155 3.94379 0 -3.26623
992 108.724 4.92973 0 -3.26623
993 109.293 3.94379 0 -3.26623
994 109.863 4.92973 0 -3.26623
995 110.432 3.94379 0 -3.26623
996 111.001 4.92973 0 -3.26623
997 111.57 3.94379 0 -3.26623
998 112.14 4.92973 0 -3.26623
999 112.709 3.94379 0 -3.26623
1000 113.278 4.92973 0 -3.26623
1001 113.847 3.94379 0 -3.26623
1002 114.417 4.92973 0 -3.26623
1003 114.986 3.94379 0 -3.26623
1004 115.555 4.92973 0 -3.26623
1005 116.124 3.94379 0 -3.26623
1006 116.693 4.92973 0 -3.26623
1007 117.263 3.94379 0 -3.26623
1008 117.832 4.92973 0 -3.26623
1009 118.401 3.94379 0 -3.26623
1010 118.97 4.92973 0 -3.26623
1011 119.54 3.94379 0 -3.26623
1012 120.109 4.92973 0 -3.26623
1013 120.678 3.94379 0 -3.26623
1014 121.247 4.92973 0 -3.26623
1017 122.955 3.94379 0 -3.26623
1018 123.524 4.92973 0 -3.26623
1019 124.094 3.94379 0 -3.26623
1020 124.663 4.92973 0 -3.26623
1021 125.232 3.94379 0 -3.26623
1022 125.801 4.92973 0 -3.26623
1023 126.37 3.94379 0 -3.26623
1024 126.94 4.92973 0 -3.26623
1025 127.509 3.94379 0 -3.26623
1026 128.078 4.92973 0 -3.26623
1027 128.647 3.94379 0 -3.26623
1030 130.355 4.92973 0 -3.26623
1031 130.924 3.94379 0 -3.26623
1032 131.494 4.92973 0 -3.26623
1033 132.063 3.94379 0 -3.26623
1034 132.632 4.92973 0 -3.26623
1035 133.201 3.94379 0 -3.26623
1036 133.771 4.92973 0 -3.26623
1037 134.34 3.94379 0 -3.26623
1038 134.909 4.92973 0 -3.26623
1039 135.478 3.94379 0 -3.26623
1040 136.047 4.92973 0 -3.26623
1041 136.617 3.94379 0 -3.26623
1042 137.186 4.92973 0 -3.26623
1043 137.755 3.94379 0 -3.26623
1044 138.324 4.92973 0 -3.26623
1047 140.032 3.94379 0 -3.26623
1048 140.601 4.92973 0 -3.26623
1049 141.171 3.94379 0 -3.26623
1050 141.74 4.92973 0 -3.26623
1051 142.309 3.94379 0 -3.26623
1052 142.878 4.92973 0 -3.26623
1053 143.448 3.94379 0 -3.26623
1054 144.017 4.92973 0 -3.26623
1055 144.586 3.94379 0 -3.26623
1056 145.155 4.92973 0 -3.26623
1057 145.725 3.94379 0 -3.26623
1058 146.294 4.92973 0 -3.26623
1059 146.863 3.94379 0 -3.26623
1060 147.432 4.92973 0 -3.26623
1061 148.001 3.94379 0 -3.26623