ITEM: TIMESTEP
0
ITEM: NUMBER OF ATOMS
2000
ITEM: BOX BOUNDS pp pp pp
0.0000000000000000e+00 5.6923637775588091e+01
0.0000000000000000e+00 3.9437853111586236e+01
-2.8461818887794044e-01 2.8461818887794044e-01
ITEM: ATOMS id x y z c_4 
1 0 0 0 -3.26623 
2 0.569236 0.985946 0 -3.26623 
3 1.13847 0 0 -3.26623 
4 1.70771 0.985946 0 -3.26623 
5 2.27695 0 0 -3.26623 
6 2.84618 0.985946 0 -3.26623 
7 3.41542 0 0 -3.26623 
8 3.98465 0.985946 0 -3.26623 
9 4.55389 0 0 -3.26623 
10 5.12313 0.985946 0 -3.26623 
11 5.69236 0 0 -3.26623 
12 6.2616 0.985946 0 -3.26623 
13 6.83084 0 0 -3.26623 
14 7.40007 0.985946 0 -3.26623 
15 7.96931 0 0 -3.26623 
16 8.53855 0.985946 0 -3.26623 
17 9.10778 0 0 -3.26623 
18 9.67702 0.985946 0 -3.26623 
19 10.2463 0 0 -3.26623 
20 10.8155 0.985946 0 -3.26623 
21 11.3847 0 0 -3.26623 
22 11.954 0.985946 0 -3.26623 
23 12.5232 0 0 -3.26623 
24 13.0924 0.985946 0 -3.26623 
25 13.6617 0 0 -3.26623 
26 14.2309 0.985946 0 -3.26623 
27 14.8001 0 0 -3.26623 
28 15.3694 0.985946 0 -3.26623 
29 15.9386 0 0 -3.26623 
30 16.5079 0.985946 0 -3.26623 
31 17.0771 0 0 -3.26623 
32 17.6463 0.985946 0 -3.26623 
33 18.2156 0 0 -3.26623 
34 18.7848 0.985946 0 -3.26623 
35 19.354 0 0 -3.26623 
36 19.9233 0.985946 0 -3.26623 
37 20.4925 0 0 -3.26623 
38 21.0617 0.985946 0 -3.26623 
39 21.631 0 0 -3.26623 
40 22.2002 0.985946 0 -3.26623 
41 22.7695 0 0 -3.26623 
42 23.3387 0.985946 0 -3.26623 
43 23.9079 0 0 -3.26623 
44 24.4772 0.985946 0 -3.26623 
45 25.0464 0 0 -3.26623 
46 25.6156 0.985946 0 -3.26623 
47 26.1849 0 0 -3.26623 
48 26.7541 0.985946 0 -3.26623 
49 27.3233 0 0 -3.26623 
50 27.8926 0.985946 0 -3.26623 
51 28.4618 0 0 -3.26623 
52 29.0311 0.985946 0 -3.26623 
53 29.6003 0 0 -3.26623 
54 30.1695 0.985946 0 -3.26623 
55 30.7388 0 0 -3.26623 
56 31.308 0.985946 0 -3.26623 
57 31.8772 0 0 -3.26623 
58 32.4465 0.985946 0 -3.26623 
59 33.0157 0 0 -3.26623 
60 33.5849 0.985946 0 -3.26623 
61 34.1542 0 0 -3.26623 
62 34.7234 0.985946 0 -3.26623 
63 35.2927 0 0 -3.26623 
64 35.8619 0.985946 0 -3.26623 
65 36.4311 0 0 -3.26623 
66 37.0004 0.985946 0 -3.26623 
67 37.5696 0 0 -3.26623 
68 38.1388 0.985946 0 -3.26623 
69 38.7081 0 0 -3.26623 
70 39.2773 0.985946 0 -3.26623 
71 39.8465 0 0 -3.26623 
72 40.4158 0.985946 0 -3.26623 
73 40.985 0 0 -3.26623 
74 41.5543 0.985946 0 -3.26623 
75 42.1235 0 0 -3.26623 
76 42.6927 0.985946 0 -3.26623 
77 43.262 0 0 -3.26623 
78 43.8312 0.985946 0 -3.26623 
79 44.4004 0 0 -3.26623 
80 44.9697 0.985946 0 -3.26623 
81 45.5389 0 0 -3.26623 
82 46.1081 0.985946 0 -3.26623 
83 46.6774 0 0 -3.26623 
84 47.2466 0.985946 0 -3.26623 
85 47.8159 0 0 -3.26623 
86 48.3851 0.985946 0 -3.26623 
87 48.9543 0 0 -3.26623 
88 49.5236 0.985946 0 -3.26623 
89 50.0928 0 0 -3.26623 
90 50.662 0.985946 0 -3.26623 
91 51.2313 0 0 -3.26623 
92 51.8005 0.985946 0 -3.26623 
93 52.3697 0 0 -3.26623 
94 52.939 0.985946 0 -3.26623 
95 53.5082 0 0 -3.26623 
96 54.0775 0.985946 0 -3.26623 
97 54.6467 0 0 -3.26623 
98 55.2159 0.985946 0 -3.26623 
99 55.7852 0 0 -3.26623 
100 56.3544 0.985946 0 -3.26623 
101 0 1.97189 0 -3.26623 
103 1.13847 1.97189 0 -3.26623 
105 2.27695 1.97189 0 -3.26623 
107 3.41542 1.97189 0 -3.26623 
109 4.55389 1.97189 0 -3.26623 
111 5.69236 1.97189 0 -3.26623 
113 6.83084 1.97189 0 -3.26623 
115 7.96931 1.97189 0 -3.26623 
117 9.10778 1.97189 0 -3.26623 
119 10.2463 1.97189 0 -3.26623 
121 11.3847 1.97189 0 -3.26623 
123 12.5232 1.97189 0 -3.26623 
125 13.6617 1.97189 0 -3.26623 
127 14.8001 1.97189 0 -3.26623 
129 15.9386 1.97189 0 -3.26623 
131 17.0771 1.97189 0 -3.26623 
133 18.2156 1.97189 0 -3.26623 
135 19.354 1.97189 0 -3.26623 
137 20.4925 1.97189 0 -3.26623 
139 21.631 1.97189 0 -3.26623 
141 22.7695 1.97189 0 -3.26623 
143 23.9079 1.97189 0 -3.26623 
145 25.0464 1.97189 0 -3.26623 
147 26.1849 1.97189 0 -3.26623 
149 27.3233 1.97189 0 -3.26623 
151 28.4618 1.97189 0 -3.26623 
153 29.6003 1.97189 0 -3.26623 
155 30.7388 1.97189 0 -3.26623 
157 31.8772 1.97189 0 -3.26623 
159 33.0157 1.97189 0 -3.26623 
161 34.1542 1.97189 0 -3.26623 
163 35.2927 1.97189 0 -3.26623 
165 36.4311 1.97189 0 -3.26623 
167 37.5696 1.97189 0 -3.26623 
169 38.7081 1.97189 0 -3.26623 
171 39.8465 1.97189 0 -3.26623 
173 40.985 1.97189 0 -3.26623 
175 42.1235 1.97189 0 -3.26623 
177 43.262 1.97189 0 -3.26623 
179 44.4004 1.97189 0 -3.26623 
181 45.5389 1.97189 0 -3.26623 
183 46.6774 1.97189 0 -3.26623 
185 47.8159 1.97189 0 -3.26623 
187 48.9543 1.97189 0 -3.26623 
189 50.0928 1.97189 0 -3.26623 
191 51.2313 1.97189 0 -3.26623 
193 52.3697 1.97189 0 -3.26623 
195 53.5082 1.97189 0 -3.26623 
197 54.6467 1.97189 0 -3.26623 
199 55.7852 1.97189 0 -3.26623 
102 0.569236 2.95784 0 -3.26623 
201 0 3.94379 0 -3.26623 
203 1.13847 3.94379 0 -3.26623 
104 1.70771 2.95784 0 -3.26623 
205 2.27695 3.94379 0 -3.26623 
106 2.84618 2.95784 0 -3.26623 
108 3.98465 2.95784 0 -3.26623 
207 3.41542 3.94379 0 -3.26623 
110 5.12313 2.95784 0 -3.26623 
209 4.55389 3.94379 0 -3.26623 
112 6.2616 2.95784 0 -3.26623 
211 5.69236 3.94379 0 -3.26623 
213 6.83084 3.94379 0 -3.26623 
114 7.40007 2.95784 0 -3.26623 
116 8.53855 2.95784 0 -3.26623 
215 7.96931 3.94379 0 -3.26623 
118 9.67702 2.95784 0 -3.26623 
217 9.10778 3.94379 0 -3.26623 
120 10.8155 2.95784 0 -3.26623 
219 10.2463 3.94379 0 -3.26623 
122 11.954 2.95784 0 -3.26623 
221 11.3847 3.94379 0 -3.26623 
223 12.5232 3.94379 0 -3.26623 
124 13.0924 2.95784 0 -3.26623 
225 13.6617 3.94379 0 -3.26623 
126 14.2309 2.95784 0 -3.26623 
128 15.3694 2.95784 0 -3.26623 
227 14.8001 3.94379 0 -3.26623 
130 16.5079 2.95784 0 -3.26623 
229 15.9386 3.94379 0 -3.26623 
231 17.0771 3.94379 0 -3.26623 
132 17.6463 2.95784 0 -3.26623 
233 18.2156 3.94379 0 -3.26623 
134 18.7848 2.95784 0 -3.26623 
235 19.354 3.94379 0 -3.26623 
136 19.9233 2.95784 0 -3.26623 
138 21.0617 2.95784 0 -3.26623 
237 20.4925 3.94379 0 -3.26623 
140 22.2002 2.95784 0 -3.26623 
239 21.631 3.94379 0 -3.26623 
142 23.3387 2.95784 0 -3.26623 
241 22.7695 3.94379 0 -3.26623 
243 23.9079 3.94379 0 -3.26623 
144 24.4772 2.95784 0 -3.26623 
245 25.0464 3.94379 0 -3.26623 
146 25.6156 2.95784 0 -3.26623 
148 26.7541 2.95784 0 -3.26623 
247 26.1849 3.94379 0 -3.26623 
150 27.8926 2.95784 0 -3.26623 
249 27.3233 3.94379 0 -3.26623 
152 29.0311 2.95784 0 -3.26623 
251 28.4618 3.94379 0 -3.26623 
253 29.6003 3.94379 0 -3.26623 
154 30.1695 2.95784 0 -3.26623 
255 30.7388 3.94379 0 -3.26623 
156 31.308 2.95784 0 -3.26623 
158 32.4465 2.95784 0 -3.26623 
257 31.8772 3.94379 0 -3.26623 
160 33.5849 2.95784 0 -3.26623 
259 33.0157 3.94379 0 -3.26623 
261 34.1542 3.94379 0 -3.26623 
162 34.7234 2.95784 0 -3.26623 
263 35.2927 3.94379 0 -3.26623 
164 35.8619 2.95784 0 -3.26623 
265 36.4311 3.94379 0 -3.26623 
166 37.0004 2.95784 0 -3.26623 
168 38.1388 2.95784 0 -3.26623 
267 37.5696 3.94379 0 -3.26623 
170 39.2773 2.95784 0 -3.26623 
269 38.7081 3.94379 0 -3.26623 
172 40.4158 2.95784 0 -3.26623 
271 39.8465 3.94379 0 -3.26623 
273 40.985 3.94379 0 -3.26623 
174 41.5543 2.95784 0 -3.26623 
275 42.1235 3.94379 0 -3.26623 
176 42.6927 2.95784 0 -3.26623 
178 43.8312 2.95784 0 -3.26623 
277 43.262 3.94379 0 -3.26623 
180 44.9697 2.95784 0 -3.26623 
279 44.4004 3.94379 0 -3.26623 
182 46.1081 2.95784 0 -3.26623 
281 45.5389 3.94379 0 -3.26623 
283 46.6774 3.94379 0 -3.26623 
184 47.2466 2.95784 0 -3.26623 
285 47.8159 3.94379 0 -3.26623 
186 48.3851 2.95784 0 -3.26623 
188 49.5236 2.95784 0 -3.26623 
287 48.9543 3.94379 0 -3.26623 
190 50.662 2.95784 0 -3.26623 
289 50.0928 3.94379 0 -3.26623 
192 51.8005 2.95784 0 -3.26623 
291 51.2313 3.94379 0 -3.26623 
293 52.3697 3.94379 0 -3.26623 
194 52.939 2.95784 0 -3.26623 
295 53.5082 3.94379 0 -3.26623 
196 54.0775 2.95784 0 -3.26623 
198 55.2159 2.95784 0 -3.26623 
297 54.6467 3.94379 0 -3.26623 
200 56.3544 2.95784 0 -3.26623 
299 55.7852 3.94379 0 -3.26623 
202 0.569236 4.92973 0 -3.26623 
204 1.70771 4.92973 0 -3.26623 
206 2.84618 4.92973 0 -3.26623 
208 3.98465 4.92973 0 -3.26623 
210 5.12313 4.92973 0 -3.26623 
212 6.2616 4.92973 0 -3.26623 
214 7.40007 4.92973 0 -3.26623 
216 8.53855 4.92973 0 -3.26623 
218 9.67702 4.92973 0 -3.26623 
220 10.8155 4.92973 0 -3.26623 
222 11.954 4.92973 0 -3.26623 
224 13.0924 4.92973 0 -3.26623 
226 14.2309 4.92973 0 -3.26623 
228 15.3694 4.92973 0 -3.26623 
230 16.5079 4.92973 0 -3.26623 
232 17.6463 4.92973 0 -3.26623 
234 18.7848 4.92973 0 -3.26623 
236 19.9233 4.92973 0 -3.26623 
238 21.0617 4.92973 0 -3.26623 
240 22.2002 4.92973 0 -3.26623 
242 23.3387 4.92973 0 -3.26623 
244 24.4772 4.92973 0 -3.26623 
246 25.6156 4.92973 0 -3.26623 
248 26.7541 4.92973 0 -3.26623 
250 27.8926 4.92973 0 -3.26623 
252 29.0311 4.92973 0 -3.26623 
254 30.1695 4.92973 0 -3.26623 
256 31.308 4.92973 0 -3.26623 
258 32.4465 4.92973 0 -3.26623 
260 33.5849 4.92973 0 -3.26623 
262 34.7234 4.92973 0 -3.26623 
264 35.8619 4.92973 0 -3.26623 
266 37.0004 4.92973 0 -3.26623 
268 38.1388 4.92973 0 -3.26623 
270 39.2773 4.92973 0 -3.26623 
272 40.4158 4.92973 0 -3.26623 
274 41.5543 4.92973 0 -3.26623 
276 42.6927 4.92973 0 -3.26623 
278 43.8312 4.92973 0 -3.26623 
280 44.9697 4.92973 0 -3.26623 
282 46.1081 4.92973 0 -3.26623 
284 47.2466 4.92973 0 -3.26623 
286 48.3851 4.92973 0 -3.26623 
288 49.5236 4.92973 0 -3.26623 
290 50.662 4.92973 0 -3.26623 
292 51.8005 4.92973 0 -3.26623 
294 52.939 4.92973 0 -3.26623 
296 54.0775 4.92973 0 -3.26623 
298 55.2159 4.92973 0 -3.26623 
300 56.3544 4.92973 0 -3.26623 
301 0 5.91568 0 -3.26623 
302 0.569236 6.90162 0 -3.26623 
303 1.13847 5.91568 0 -3.26623 
304 1.70771 6.90162 0 -3.26623 
305 2.27695 5.91568 0 -3.26623 
306 2.84618 6.90162 0 -3.26623 
307 3.41542 5.91568 0 -3.26623 
308 3.98465 6.90162 0 -3.26623 
309 4.55389 5.91568 0 -3.26623 
310 5.12313 6.90162 0 -3.26623 
311 5.69236 5.91568 0 -3.26623 
312 6.2616 6.90162 0 -3.26623 
313 6.83084 5.91568 0 -3.26623 
314 7.40007 6.90162 0 -3.26623 
315 7.96931 5.91568 0 -3.26623 
316 8.53855 6.90162 0 -3.26623 
317 9.10778 5.91568 0 -3.26623 
318 9.67702 6.90162 0 -3.26623 
319 10.2463 5.91568 0 -3.26623 
320 10.8155 6.90162 0 -3.26623 
321 11.3847 5.91568 0 -3.26623 
322 11.954 6.90162 0 -3.26623 
323 12.5232 5.91568 0 -3.26623 
324 13.0924 6.90162 0 -3.26623 
325 13.6617 5.91568 0 -3.26623 
326 14.2309 6.90162 0 -3.26623 
327 14.8001 5.91568 0 -3.26623 
328 15.3694 6.90162 0 -3.26623 
329 15.9386 5.91568 0 -3.26623 
330 16.5079 6.90162 0 -3.26623 
331 17.0771 5.91568 0 -3.26623 
332 17.6463 6.90162 0 -3.26623 
333 18.2156 5.91568 0 -3.26623 
334 18.7848 6.90162 0 -3.26623 
335 19.354 5.91568 0 -3.26623 
336 19.9233 6.90162 0 -3.26623 
337 20.4925 5.91568 0 -3.26623 
338 21.0617 6.90162 0 -3.26623 
339 21.631 5.91568 0 -3.26623 
340 22.2002 6.90162 0 -3.26623 
341 22.7695 5.91568 0 -3.26623 
342 23.3387 6.90162 0 -3.26623 
343 23.9079 5.91568 0 -3.26623 
344 24.4772 6.90162 0 -3.26623 
345 25.0464 5.91568 0 -3.26623 
346 25.6156 6.90162 0 -3.26623 
347 26.1849 5.91568 0 -3.26623 
348 26.7541 6.90162 0 -3.26623 
349 27.3233 5.91568 0 -3.26623 
350 27.8926 6.90162 0 -3.26623 
351 28.4618 5.91568 0 -3.26623 
352 29.0311 6.90162 0 -3.26623 
353 29.6003 5.91568 0 -3.26623 
354 30.1695 6.90162 0 -3.26623 
355 30.7388 5.91568 0 -3.26623 
356 31.308 6.90162 0 -3.26623 
357 31.8772 5.91568 0 -3.26623 
358 32.4465 6.90162 0 -3.26623 
359 33.0157 5.91568 0 -3.26623 
360 33.5849 6.90162 0 -3.26623 
361 34.1542 5.91568 0 -3.26623 
362 34.7234 6.90162 0 -3.26623 
363 35.2927 5.91568 0 -3.26623 
364 35.8619 6.90162 0 -3.26623 
365 36.4311 5.91568 0 -3.26623 
366 37.0004 6.90162 0 -3.26623 
367 37.5696 5.91568 0 -3.26623 
368 38.1388 6.90162 0 -3.26623 
369 38.7081 5.91568 0 -3.26623 
370 39.2773 6.90162 0 -3.26623 
371 39.8465 5.91568 0 -3.26623 
372 40.4158 6.90162 0 -3.26623 
373 40.985 5.91568 0 -3.26623 
374 41.5543 6.90162 0 -3.26623 
375 42.1235 5.91568 0 -3.26623 
376 42.6927 6.90162 0 -3.26623 
377 43.262 5.91568 0 -3.26623 
378 43.8312 6.90162 0 -3.26623 
379 44.4004 5.91568 0 -3.26623 
380 44.9697 6.90162 0 -3.26623 
381 45.5389 5.91568 0 -3.26623 
382 46.1081 6.90162 0 -3.26623 
383 46.6774 5.91568 0 -3.26623 
384 47.2466 6.90162 0 -3.26623 
385 47.8159 5.91568 0 -3.26623 
386 48.3851 6.90162 0 -3.26623 
387 48.9543 5.91568 0 -3.26623 
388 49.5236 6.90162 0 -3.26623 
389 50.0928 5.91568 0 -3.26623 
390 50.662 6.90162 0 -3.26623 
391 51.2313 5.91568 0 -3.26623 
392 51.8005 6.90162 0 -3.26623 
393 52.3697 5.91568 0 -3.26623 
394 52.939 6.90162 0 -3.26623 
395 53.5082 5.91568 0 -3.26623 
396 54.0775 6.90162 0 -3.26623 
397 54.6467 5.91568 0 -3.26623 
398 55.2159 6.90162 0 -3.26623 
399 55.7852 5.91568 0 -3.26623 
400 56.3544 6.90162 0 -3.26623 
401 0 7.88757 0 -3.26623 
403 1.13847 7.88757 0 -3.26623 
405 2.27695 7.88757 0 -3.26623 
407 3.41542 7.88757 0 -3.26623 
409 4.55389 7.88757 0 -3.26623 
411 5.69236 7.88757 0 -3.26623 
413 6.83084 7.88757 0 -3.26623 
415 7.96931 7.88757 0 -3.26623 
417 9.10778 7.88757 0 -3.26623 
419 10.2463 7.88757 0 -3.26623 
421 11.3847 7.88757 0 -3.26623 
423 12.5232 7.88757 0 -3.26623 
425 13.6617 7.88757 0 -3.26623 
427 14.8001 7.88757 0 -3.26623 
429 15.9386 7.88757 0 -3.26623 
431 17.0771 7.88757 0 -3.26623 
433 18.2156 7.88757 0 -3.26623 
435 19.354 7.88757 0 -3.26623 
437 20.4925 7.88757 0 -3.26623 
439 21.631 7.88757 0 -3.26623 
441 22.7695 7.88757 0 -3.26623 
443 23.9079 7.88757 0 -3.26623 
445 25.0464 7.88757 0 -3.26623 
447 26.1849 7.88757 0 -3.26623 
449 27.3233 7.88757 0 -3.26623 
451 28.4618 7.88757 0 -3.26623 
453 29.6003 7.88757 0 -3.26623 
455 30.7388 7.88757 0 -3.26623 
457 31.8772 7.88757 0 -3.26623 
459 33.0157 7.88757 0 -3.26623 
461 34.1542 7.88757 0 -3.26623 
463 35.2927 7.88757 0 -3.26623 
465 36.4311 7.88757 0 -3.26623 
467 37.5696 7.88757 0 -3.26623 
469 38.7081 7.88757 0 -3.26623 
471 39.8465 7.88757 0 -3.26623 
473 40.985 7.88757 0 -3.26623 
475 42.1235 7.88757 0 -3.26623 
477 43.262 7.88757 0 -3.26623 
479 44.4004 7.88757 0 -3.26623 
481 45.5389 7.88757 0 -3.26623 
483 46.6774 7.88757 0 -3.26623 
485 47.8159 7.88757 0 -3.26623 
487 48.9543 7.88757 0 -3.26623 
489 50.0928 7.88757 0 -3.26623 
491 51.2313 7.88757 0 -3.26623 
493 52.3697 7.88757 0 -3.26623 
495 53.5082 7.88757 0 -3.26623 
497 54.6467 7.88757 0 -3.26623 
499 55.7852 7.88757 0 -3.26623 
402 0.569236 8.87352 0 -3.26623 
404 1.70771 8.87352 0 -3.26623 
406 2.84618 8.87352 0 -3.26623 
408 3.98465 8.87352 0 -3.26623 
410 5.12313 8.87352 0 -3.26623 
412 6.2616 8.87352 0 -3.26623 
414 7.40007 8.87352 0 -3.26623 
416 8.53855 8.87352 0 -3.26623 
418 9.67702 8.87352 0 -3.26623 
420 10.8155 8.87352 0 -3.26623 
422 11.954 8.87352 0 -3.26623 
424 13.0924 8.87352 0 -3.26623 
426 14.2309 8.87352 0 -3.26623 
428 15.3694 8.87352 0 -3.26623 
430 16.5079 8.87352 0 -3.26623 
432 17.6463 8.87352 0 -3.26623 
434 18.7848 8.87352 0 -3.26623 
436 19.9233 8.87352 0 -3.26623 
438 21.0617 8.87352 0 -3.26623 
440 22.2002 8.87352 0 -3.26623 
442 23.3387 8.87352 0 -3.26623 
444 24.4772 8.87352 0 -3.26623 
446 25.6156 8.87352 0 -3.26623 
448 26.7541 8.87352 0 -3.26623 
450 27.8926 8.87352 0 -3.26623 
452 29.0311 8.87352 0 -3.26623 
454 30.1695 8.87352 0 -3.26623 
456 31.308 8.87352 0 -3.26623 
458 32.4465 8.87352 0 -3.26623 
460 33.5849 8.87352 0 -3.26623 
462 34.7234 8.87352 0 -3.26623 
464 35.8619 8.87352 0 -3.26623 
466 37.0004 8.87352 0 -3.26623 
468 38.1388 8.87352 0 -3.26623 
470 39.2773 8.87352 0 -3.26623 
472 40.4158 8.87352 0 -3.26623 
474 41.5543 8.87352 0 -3.26623 
476 42.6927 8.87352 0 -3.26623 
478 43.8312 8.87352 0 -3.26623 
480 44.9697 8.87352 0 -3.26623 
482 46.1081 8.87352 0 -3.26623 
484 47.2466 8.87352 0 -3.26623 
486 48.3851 8.87352 0 -3.26623 
488 49.5236 8.87352 0 -3.26623 
490 50.662 8.87352 0 -3.26623 
492 51.8005 8.87352 0 -3.26623 
494 52.939 8.87352 0 -3.26623 
496 54.0775 8.87352 0 -3.26623 
498 55.2159 8.87352 0 -3.26623 
500 56.3544 8.87352 0 -3.26623 
501 0 9.85946 0 -3.26623 
502 0.569236 10.8454 0 -3.26623 
503 1.13847 9.85946 0 -3.26623 
504 1.70771 10.8454 0 -3.26623 
505 2.27695 9.85946 0 -3.26623 
506 2.84618 10.8454 0 -3.26623 
507 3.41542 9.85946 0 -3.26623 
508 3.98465 10.8454 0 -3.26623 
509 4.55389 9.85946 0 -3.26623 
510 5.12313 10.8454 0 -3.26623 
511 5.69236 9.85946 0 -3.26623 
512 6.2616 10.8454 0 -3.26623 
513 6.83084 9.85946 0 -3.26623 
514 7.40007 10.8454 0 -3.26623 
515 7.96931 9.85946 0 -3.26623 
516 8.53855 10.8454 0 -3.26623 
517 9.10778 9.85946 0 -3.26623 
518 9.67702 10.8454 0 -3.26623 
519 10.2463 9.85946 0 -3.26623 
520 10.8155 10.8454 0 -3.26623 
521 11.3847 9.85946 0 -3.26623 
522 11.954 10.8454 0 -3.26623 
523 12.5232 9.85946 0 -3.26623 
524 13.0924 10.8454 0 -3.26623 
525 13.6617 9.85946 0 -3.26623 
526 14.2309 10.8454 0 -3.26623 
527 14.8001 9.85946 0 -3.26623 
528 15.3694 10.8454 0 -3.26623 
529 15.9386 9.85946 0 -3.26623 
530 16.5079 10.8454 0 -3.26623 
531 17.0771 9.85946 0 -3.26623 
532 17.6463 10.8454 0 -3.26623 
533 18.2156 9.85946 0 -3.26623 
534 18.7848 10.8454 0 -3.26623 
535 19.354 9.85946 0 -3.26623 
536 19.9233 10.8454 0 -3.26623 
537 20.4925 9.85946 0 -3.26623 
538 21.0617 10.8454 0 -3.26623 
539 21.631 9.85946 0 -3.26623 
540 22.2002 10.8454 0 -3.26623 
541 22.7695 9.85946 0 -3.26623 
542 23.3387 10.8454 0 -3.26623 
543 23.9079 9.85946 0 -3.26623 
544 24.4772 10.8454 0 -3.26623 
545 25.0464 9.85946 0 -3.26623 
546 25.6156 10.8454 0 -3.26623 
547 26.1849 9.85946 0 -3.26623 
548 26.7541 10.8454 0 -3.26623 
549 27.3233 9.85946 0 -3.26623 
550 27.8926 10.8454 0 -3.26623 
551 28.4618 9.85946 0 -3.26623 
552 29.0311 10.8454 0 -3.26623 
553 29.6003 9.85946 0 -3.26623 
554 30.1695 10.8454 0 -3.26623 
555 30.7388 9.85946 0 -3.26623 
556 31.308 10.8454 0 -3.26623 
557 31.8772 9.85946 0 -3.26623 
558 32.4465 10.8454 0 -3.26623 
559 33.0157 9.85946 0 -3.26623 
560 33.5849 10.8454 0 -3.26623 
561 34.1542 9.85946 0 -3.26623 
562 34.7234 10.8454 0 -3.26623 
563 35.2927 9.85946 0 -3.26623 
564 35.8619 10.8454 0 -3.26623 
565 36.4311 9.85946 0 -3.26623 
566 37.0004 10.8454 0 -3.26623 
567 37.5696 9.85946 0 -3.26623 
568 38.1388 10.8454 0 -3.26623 
569 38.7081 9.85946 0 -3.26623 
570 39.2773 10.8454 0 -3.26623 
571 39.8465 9.85946 0 -3.26623 
572 40.4158 10.8454 0 -3.26623 
573 40.985 9.85946 0 -3.26623 
574 41.5543 10.8454 0 -3.26623 
575 42.1235 9.85946 0 -3.26623 
576 42.6927 10.8454 0 -3.26623 
577 43.262 9.85946 0 -3.26623 
578 43.8312 10.8454 0 -3.26623 
579 44.4004 9.85946 0 -3.26623 
580 44.9697 10.8454 0 -3.26623 
581 45.5389 9.85946 0 -3.26623 
582 46.1081 10.8454 0 -3.26623 
583 46.6774 9.85946 0 -3.26623 
584 47.2466 10.8454 0 -3.26623 
585 47.8159 9.85946 0 -3.26623 
586 48.3851 10.8454 0 -3.26623 
587 48.9543 9.85946 0 -3.26623 
588 49.5236 10.8454 0 -3.26623 
589 50.0928 9.85946 0 -3.26623 
590 50.662 10.8454 0 -3.26623 
591 51.2313 9.85946 0 -3.26623 
592 51.8005 10.8454 0 -3.26623 
593 52.3697 9.85946 0 -3.26623 
594 52.939 10.8454 0 -3.26623 
595 53.5082 9.85946 0 -3.26623 
596 54.0775 10.8454 0 -3.26623 
597 54.6467 9.85946 0 -3.26623 
598 55.2159 10.8454 0 -3.26623 
599 55.7852 9.85946 0 -3.26623 
600 56.3544 10.8454 0 -3.26623 
601 0 11.8314 0 -3.26623 
603 1.13847 11.8314 0 -3.26623 
605 2.27695 11.8314 0 -3.26623 
607 3.41542 11.8314 0 -3.26623 
609 4.55389 11.8314 0 -3.26623 
611 5.69236 11.8314 0 -3.26623 
613 6.83084 11.8314 0 -3.26623 
615 7.96931 11.8314 0 -3.26623 
617 9.10778 11.8314 0 -3.26623 
619 10.2463 11.8314 0 -3.26623 
621 11.3847 11.8314 0 -3.26623 
623 12.5232 11.8314 0 -3.26623 
625 13.6617 11.8314 0 -3.26623 
627 14.8001 11.8314 0 -3.26623 
629 15.9386 11.8314 0 -3.26623 
631 17.0771 11.8314 0 -3.26623 
633 18.2156 11.8314 0 -3.26623 
635 19.354 11.8314 0 -3.26623 
637 20.4925 11.8314 0 -3.26623 
639 21.631 11.8314 0 -3.26623 
641 22.7695 11.8314 0 -3.26623 
643 23.9079 11.8314 0 -3.26623 
645 25.0464 11.8314 0 -3.26623 
647 26.1849 11.8314 0 -3.26623 
649 27.3233 11.8314 0 -3.26623 
651 28.4618 11.8314 0 -3.26623 
653 29.6003 11.8314 0 -3.26623 
655 30.7388 11.8314 0 -3.26623 
657 31.8772 11.8314 0 -3.26623 
659 33.0157 11.8314 0 -3.26623 
661 34.1542 11.8314 0 -3.26623 
663 35.2927 11.8314 0 -3.26623 
665 36.4311 11.8314 0 -3.26623 
667 37.5696 11.8314 0 -3.26623 
669 38.7081 11.8314 0 -3.26623 
671 39.8465 11.8314 0 -3.26623 
673 40.985 11.8314 0 -3.26623 
675 42.1235 11.8314 0 -3.26623 
677 43.262 11.8314 0 -3.26623 
679 44.4004 11.8314 0 -3.26623 
681 45.5389 11.8314 0 -3.26623 
683 46.6774 11.8314 0 -3.26623 
685 47.8159 11.8314 0 -3.26623 
687 48.9543 11.8314 0 -3.26623 
689 50.0928 11.8314 0 -3.26623 
691 51.2313 11.8314 0 -3.26623 
693 52.3697 11.8314 0 -3.26623 
695 53.5082 11.8314 0 -3.26623 
697 54.6467 11.8314 0 -3.26623 
699 55.7852 11.8314 0 -3.26623 
602 0.569236 12.8173 0 -3.26623 
701 0 13.8032 0 -3.26623 
703 1.13847 13.8032 0 -3.26623 
604 1.70771 12.8173 0 -3.26623 
705 2.27695 13.8032 0 -3.26623 
606 2.84618 12.8173 0 -3.26623 
608 3.98465 12.8173 0 -3.26623 
707 3.41542 13.8032 0 -3.26623 
610 5.12313 12.8173 0 -3.26623 
709 4.55389 13.8032 0 -3.26623 
612 6.2616 12.8173 0 -3.26623 
711 5.69236 13.8032 0 -3.26623 
713 6.83084 13.8032 0 -3.26623 
614 7.40007 12.8173 0 -3.26623 
616 8.53855 12.8173 0 -3.26623 
715 7.96931 13.8032 0 -3.26623 
618 9.67702 12.8173 0 -3.26623 
717 9.10778 13.8032 0 -3.26623 
620 10.8155 12.8173 0 -3.26623 
719 10.2463 13.8032 0 -3.26623 
622 11.954 12.8173 0 -3.26623 
721 11.3847 13.8032 0 -3.26623 
723 12.5232 13.8032 0 -3.26623 
624 13.0924 12.8173 0 -3.26623 
725 13.6617 13.8032 0 -3.26623 
626 14.2309 12.8173 0 -3.26623 
628 15.3694 12.8173 0 -3.26623 
727 14.8001 13.8032 0 -3.26623 
630 16.5079 12.8173 0 -3.26623 
729 15.9386 13.8032 0 -3.26623 
731 17.0771 13.8032 0 -3.26623 
632 17.6463 12.8173 0 -3.26623 
733 18.2156 13.8032 0 -3.26623 
634 18.7848 12.8173 0 -3.26623 
735 19.354 13.8032 0 -3.26623 
636 19.9233 12.8173 0 -3.26623 
638 21.0617 12.8173 0 -3.26623 
737 20.4925 13.8032 0 -3.26623 
640 22.2002 12.8173 0 -3.26623 
739 21.631 13.8032 0 -3.26623 
642 23.3387 12.8173 0 -3.26623 
741 22.7695 13.8032 0 -3.26623 
743 23.9079 13.8032 0 -3.26623 
644 24.4772 12.8173 0 -3.26623 
745 25.0464 13.8032 0 -3.26623 
646 25.6156 12.8173 0 -3.26623 
648 26.7541 12.8173 0 -3.26623 
747 26.1849 13.8032 0 -3.26623 
650 27.8926 12.8173 0 -3.26623 
749 27.3233 13.8032 0 -3.26623 
652 29.0311 12.8173 0 -3.26623 
751 28.4618 13.8032 0 -3.26623 
753 29.6003 13.8032 0 -3.26623 
654 30.1695 12.8173 0 -3.26623 
755 30.7388 13.8032 0 -3.26623 
656 31.308 12.8173 0 -3.26623 
658 32.4465 12.8173 0 -3.26623 
757 31.8772 13.8032 0 -3.26623 
660 33.5849 12.8173 0 -3.26623 
759 33.0157 13.8032 0 -3.26623 
761 34.1542 13.8032 0 -3.26623 
662 34.7234 12.8173 0 -3.26623 
763 35.2927 13.8032 0 -3.26623 
664 35.8619 12.8173 0 -3.26623 
765 36.4311 13.8032 0 -3.26623 
666 37.0004 12.8173 0 -3.26623 
668 38.1388 12.8173 0 -3.26623 
767 37.5696 13.8032 0 -3.26623 
670 39.2773 12.8173 0 -3.26623 
769 38.7081 13.8032 0 -3.26623 
672 40.4158 12.8173 0 -3.26623 
771 39.8465 13.8032 0 -3.26623 
773 40.985 13.8032 0 -3.26623 
674 41.5543 12.8173 0 -3.26623 
775 42.1235 13.8032 0 -3.26623 
676 42.6927 12.8173 0 -3.26623 
678 43.8312 12.8173 0 -3.26623 
777 43.262 13.8032 0 -3.26623 
680 44.9697 12.8173 0 -3.26623 
779 44.4004 13.8032 0 -3.26623 
682 46.1081 12.8173 0 -3.26623 
781 45.5389 13.8032 0 -3.26623 
783 46.6774 13.8032 0 -3.26623 
684 47.2466 12.8173 0 -3.26623 
785 47.8159 13.8032 0 -3.26623 
686 48.3851 12.8173 0 -3.26623 
688 49.5236 12.8173 0 -3.26623 
787 48.9543 13.8032 0 -3.26623 
690 50.662 12.8173 0 -3.26623 
789 50.0928 13.8032 0 -3.26623 
692 51.8005 12.8173 0 -3.26623 
791 51.2313 13.8032 0 -3.26623 
793 52.3697 13.8032 0 -3.26623 
694 52.939 12.8173 0 -3.26623 
795 53.5082 13.8032 0 -3.26623 
696 54.0775 12.8173 0 -3.26623 
698 55.2159 12.8173 0 -3.26623 
797 54.6467 13.8032 0 -3.26623 
700 56.3544 12.8173 0 -3.26623 
799 55.7852 13.8032 0 -3.26623 
702 0.569236 14.7892 0 -3.26623 
704 1.70771 14.7892 0 -3.26623 
706 2.84618 14.7892 0 -3.26623 
708 3.98465 14.7892 0 -3.26623 
710 5.12313 14.7892 0 -3.26623 
712 6.2616 14.7892 0 -3.26623 
714 7.40007 14.7892 0 -3.26623 
716 8.53855 14.7892 0 -3.26623 
718 9.67702 14.7892 0 -3.26623 
720 10.8155 14.7892 0 -3.26623 
722 11.954 14.7892 0 -3.26623 
724 13.0924 14.7892 0 -3.26623 
726 14.2309 14.7892 0 -3.26623 
728 15.3694 14.7892 0 -3.26623 
730 16.5079 14.7892 0 -3.26623 
732 17.6463 14.7892 0 -3.26623 
734 18.7848 14.7892 0 -3.26623 
736 19.9233 14.7892 0 -3.26623 
738 21.0617 14.7892 0 -3.26623 
740 22.2002 14.7892 0 -3.26623 
742 23.3387 14.7892 0 -3.26623 
744 24.4772 14.7892 0 -3.26623 
746 25.6156 14.7892 0 -3.26623 
748 26.7541 14.7892 0 -3.26623 
750 27.8926 14.7892 0 -3.26623 
752 29.0311 14.7892 0 -3.26623 
754 30.1695 14.7892 0 -3.26623 
756 31.308 14.7892 0 -3.26623 
758 32.4465 14.7892 0 -3.26623 
760 33.5849 14.7892 0 -3.26623 
762 34.7234 14.7892 0 -3.26623 
764 35.8619 14.7892 0 -3.26623 
766 37.0004 14.7892 0 -3.26623 
768 38.1388 14.7892 0 -3.26623 
770 39.2773 14.7892 0 -3.26623 
772 40.4158 14.7892 0 -3.26623 
774 41.5543 14.7892 0 -3.26623 
776 42.6927 14.7892 0 -3.26623 
778 43.8312 14.7892 0 -3.26623 
780 44.9697 14.7892 0 -3.26623 
782 46.1081 14.7892 0 -3.26623 
784 47.2466 14.7892 0 -3.26623 
786 48.3851 14.7892 0 -3.26623 
788 49.5236 14.7892 0 -3.26623 
790 50.662 14.7892 0 -3.26623 
792 51.8005 14.7892 0 -3.26623 
794 52.939 14.7892 0 -3.26623 
796 54.0775 14.7892 0 -3.26623 
798 55.2159 14.7892 0 -3.26623 
800 56.3544 14.7892 0 -3.26623 
801 0 15.7751 0 -3.26623 
802 0.569236 16.7611 0 -3.26623 
803 1.13847 15.7751 0 -3.26623 
804 1.70771 16.7611 0 -3.26623 
805 2.27695 15.7751 0 -3.26623 
806 2.84618 16.7611 0 -3.26623 
807 3.41542 15.7751 0 -3.26623 
808 3.98465 16.7611 0 -3.26623 
809 4.55389 15.7751 0 -3.26623 
810 5.12313 16.7611 0 -3.26623 
811 5.69236 15.7751 0 -3.26623 
812 6.2616 16.7611 0 -3.26623 
813 6.83084 15.7751 0 -3.26623 
814 7.40007 16.7611 0 -3.26623 
815 7.96931 15.7751 0 -3.26623 
816 8.53855 16.7611 0 -3.26623 
817 9.10778 15.7751 0 -3.26623 
818 9.67702 16.7611 0 -3.26623 
819 10.2463 15.7751 0 -3.26623 
820 10.8155 16.7611 0 -3.26623 
821 11.3847 15.7751 0 -3.26623 
822 11.954 16.7611 0 -3.26623 
823 12.5232 15.7751 0 -3.26623 
824 13.0924 16.7611 0 -3.26623 
825 13.6617 15.7751 0 -3.26623 
826 14.2309 16.7611 0 -3.26623 
827 14.8001 15.7751 0 -3.26623 
828 15.3694 16.7611 0 -3.26623 
829 15.9386 15.7751 0 -3.26623 
830 16.5079 16.7611 0 -3.26623 
831 17.0771 15.7751 0 -3.26623 
832 17.6463 16.7611 0 -3.26623 
833 18.2156 15.7751 0 -3.26623 
834 18.7848 16.7611 0 -3.26623 
835 19.354 15.7751 0 -3.26623 
836 19.9233 16.7611 0 -3.26623 
837 20.4925 15.7751 0 -3.26623 
838 21.0617 16.7611 0 -3.26623 
839 21.631 15.7751 0 -3.26623 
840 22.2002 16.7611 0 -3.26623 
841 22.7695 15.7751 0 -3.26623 
842 23.3387 16.7611 0 -3.26623 
843 23.9079 15.7751 0 -3.26623 
844 24.4772 16.7611 0 -3.26623 
845 25.0464 15.7751 0 -3.26623 
846 25.6156 16.7611 0 -3.26623 
847 26.1849 15.7751 0 -3.26623 
848 26.7541 16.7611 0 -3.26623 
849 27.3233 15.7751 0 -3.26623 
850 27.8926 16.7611 0 -3.26623 
851 28.4618 15.7751 0 -3.26623 
852 29.0311 16.7611 0 -3.26623 
853 29.6003 15.7751 0 -3.26623 
854 30.1695 16.7611 0 -3.26623 
855 30.7388 15.7751 0 -3.26623 
856 31.308 16.7611 0 -3.26623 
857 31.8772 15.7751 0 -3.26623 
858 32.4465 16.7611 0 -3.26623 
859 33.0157 15.7751 0 -3.26623 
860 33.5849 16.7611 0 -3.26623 
861 34.1542 15.7751 0 -3.26623 
862 34.7234 16.7611 0 -3.26623 
863 35.2927 15.7751 0 -3.26623 
864 35.8619 16.7611 0 -3.26623 
865 36.4311 15.7751 0 -3.26623 
866 37.0004 16.7611 0 -3.26623 
867 37.5696 15.7751 0 -3.26623 
868 38.1388 16.7611 0 -3.26623 
869 38.7081 15.7751 0 -3.26623 
870 39.2773 16.7611 0 -3.26623 
871 39.8465 15.7751 0 -3.26623 
872 40.4158 16.7611 0 -3.26623 
873 40.985 15.7751 0 -3.26623 
874 41.5543 16.7611 0 -3.26623 
875 42.1235 15.7751 0 -3.26623 
876 42.6927 16.7611 0 -3.26623 
877 43.262 15.7751 0 -3.26623 
878 43.8312 16.7611 0 -3.26623 
879 44.4004 15.7751 0 -3.26623 
880 44.9697 16.7611 0 -3.26623 
881 45.5389 15.7751 0 -3.26623 
882 46.1081 16.7611 0 -3.26623 
883 46.6774 15.7751 0 -3.26623 
884 47.2466 16.7611 0 -3.26623 
885 47.8159 15.7751 0 -3.26623 
886 48.3851 16.7611 0 -3.26623 
887 48.9543 15.7751 0 -3.26623 
888 49.5236 16.7611 0 -3.26623 
889 50.0928 15.7751 0 -3.26623 
890 50.662 16.7611 0 -3.26623 
891 51.2313 15.7751 0 -3.26623 
892 51.8005 16.7611 0 -3.26623 
893 52.3697 15.7751 0 -3.26623 
894 52.939 16.7611 0 -3.26623 
895 53.5082 15.7751 0 -3.26623 
896 54.0775 16.7611 0 -3.26623 
897 54.6467 15.7751 0 -3.26623 
898 55.2159 16.7611 0 -3.26623 
899 55.7852 15.7751 0 -3.26623 
900 56.3544 16.7611 0 -3.26623 
901 0 17.747 0 -3.26623 
903 1.13847 17.747 0 -3.26623 
905 2.27695 17.747 0 -3.26623 
907 3.41542 17.747 0 -3.26623 
909 4.55389 17.747 0 -3.26623 
911 5.69236 17.747 0 -3.26623 
913 6.83084 17.747 0 -3.26623 
915 7.96931 17.747 0 -3.26623 
917 9.10778 17.747 0 -3.26623 
919 10.2463 17.747 0 -3.26623 
921 11.3847 17.747 0 -3.26623 
923 12.5232 17.747 0 -3.26623 
925 13.6617 17.747 0 -3.26623 
927 14.8001 17.747 0 -3.26623 
929 15.9386 17.747 0 -3.26623 
931 17.0771 17.747 0 -3.26623 
933 18.2156 17.747 0 -3.26623 
935 19.354 17.747 0 -3.26623 
937 20.4925 17.747 0 -3.26623 
939 21.631 17.747 0 -3.26623 
941 22.7695 17.747 0 -3.26623 
943 23.9079 17.747 0 -3.26623 
945 25.0464 17.747 0 -3.26623 
947 26.1849 17.747 0 -3.26623 
949 27.3233 17.747 0 -3.26623 
951 28.4618 17.747 0 -3.26623 
953 29.6003 17.747 0 -3.26623 
955 30.7388 17.747 0 -3.26623 
957 31.8772 17.747 0 -3.26623 
959 33.0157 17.747 0 -3.26623 
961 34.1542 17.747 0 -3.26623 
963 35.2927 17.747 0 -3.26623 
965 36.4311 17.747 0 -3.26623 
967 37.5696 17.747 0 -3.26623 
969 38.7081 17.747 0 -3.26623 
971 39.8465 17.747 0 -3.26623 
973 40.985 17.747 0 -3.26623 
975 42.1235 17.747 0 -3.26623 
977 43.262 17.747 0 -3.26623 
979 44.4004 17.747 0 -3.26623 
981 45.5389 17.747 0 -3.26623 
983 46.6774 17.747 0 -3.26623 
985 47.8159 17.747 0 -3.26623 
987 48.9543 17.747 0 -3.26623 
989 50.0928 17.747 0 -3.26623 
991 51.2313 17.747 0 -3.26623 
993 52.3697 17.747 0 -3.26623 